 +-------------------------------------------------+
 |                                                 |
 |      CCC   AA    SSS  TTTTT  EEEEE  PPPP        |
 |     C     A  A  S       T    E      P   P       |
 |     C     AAAA   SS     T    EEE    PPPP        |
 |     C     A  A     S    T    E      P           |
 |      CCC  A  A  SSS     T    EEEEE  P           |
 |                                                 |
 +-------------------------------------------------+
 |                                                 |
 | Welcome to Academic Release CASTEP version 20.11|          
 | Ab Initio Total Energy Program                  |
 |                                                 |
 | Authors:                                        |
 | M. Segall, M. Probert, C. Pickard, P. Hasnip,   |
 | S. Clark, K. Refson, J. R. Yates, M. Payne      |
 |                                                 |
 | Contributors:                                   |
 | P. Lindan, P. Haynes, J. White, V. Milman,      |
 | N. Govind, M. Gibson, P. Tulip, V. Cocula,      |
 | B. Montanari, D. Quigley, M. Glover,            |
 | L. Bernasconi, A. Perlov, M. Plummer,           |
 | E. McNellis, J. Meyer, J. Gale, D. Jochym       |
 | J. Aarons, B. Walker, R. Gillen, D. Jones       |
 | T. Green, I. J. Bush, C. J. Armstrong,          |
 | E. J. Higgins, E. L. Brown, M. S. McFly,        |
 | J. Wilkins, B-C. Shih, P. J. P. Byrne,          |
 | R. J. Maurer, J. C. Womack, J. Dziedzic,        |
 | J. R. Kermode, A. Bartok-Partay                 |
 |                                                 |
 | Copyright (c) 2000 - 2020                       |
 |                                                 |
 |     Distributed under license from Cambridge    |
 |     Enterprise for academic use only.           |
 |                                                 |
 | Please cite                                     |
 |                                                 |
 |     "First principles methods using CASTEP"     |
 |                                                 |
 |         Zeitschrift fuer Kristallographie       |
 |           220(5-6) pp. 567-570 (2005)           |
 |                                                 |
 | S. J. Clark, M. D. Segall, C. J. Pickard,       |
 | P. J. Hasnip, M. J. Probert, K. Refson,         |
 | M. C. Payne                                     |
 |                                                 |
 |       in all publications arising from          |
 |              your use of CASTEP                 |
 |                                                 |
 +-------------------------------------------------+
 |                                                 |
 |              http://www.castep.org              |
 |                                                 |
 +-------------------------------------------------+
 
 
 
 Compiled for linux_x86_64_ifort on Wed, 11 Aug 2021 06:51:56 -0700
 from code version e772bf432+  HEAD  Sat Apr 3 17:41:32 2021 +0100
 Compiler: Intel Fortran 2021.1; Optimisation: fast
 MATHLIBS: Intel MKL(2021.1-Product) (LAPACK version 3.9.0)
 FFT Lib : default
 Fundamental constants values: CODATA 2014
 
 Run started: Fri, 09 Aug 2024 10:01:16 -0700
 
 Atomic calculation performed for O: 1s2 2s2 2p4
 
 Converged in 45 iterations to an ae energy of -2041.872 eV
 
   ============================================================                
   | Pseudopotential Report - Date of generation  9-08-2024   |                
   ------------------------------------------------------------                
   | Element: O Ionic charge:  6.00 Level of theory: RSCAN    |                
   | Atomic Solver: Koelling-Harmon                           |                
   |                                                          |                
   |               Reference Electronic Structure             |                
   |         Orbital         Occupation         Energy        |                
   |            2s              2.000           -0.932        |                
   |            2p              4.000           -0.344        |                
   |                                                          |                
   |                 Pseudopotential Definition               |                
   |        Beta     l      e      Rc     scheme   norm       |                
   |          1      0   -0.932   1.196     qc      1         |                
   |          2      0    0.250   1.196     qc      1         |                
   |          3      1   -0.344   1.196     qc      1         |                
   |          4      1    0.250   1.196     qc      1         |                
   |         loc     2    0.000   1.196     pn      0         |                
   |                                                          |                
   | No charge augmentation                                   |                
   | Partial core correction Rc = 0.842                       |                
   ------------------------------------------------------------                
   | "2|1.2|23|26|31|20NN:21NN(qc=9)"                         |                
   ------------------------------------------------------------                
   |      Author: Chris J. Pickard, Cambridge University      |                
   ============================================================                
 Warning: ion_atom_output_psp cannot write out meta-GGA pseudopotentials present
 ly.
 
 Atomic calculation performed for Cs:
 1s2 2s2 2p6 3s2 3p6 3d10 4s2 4p6 4d10 5s2 5p6 6s1
 
 Exceeded max iterations: converged to 0.002629303 eV
 The ae energy is -211951.228 eV
 
   ============================================================                
   | Pseudopotential Report - Date of generation  9-08-2024   |                
   ------------------------------------------------------------                
   | Element: Cs Ionic charge:  9.00 Level of theory: RSCAN   |                
   | Atomic Solver: Koelling-Harmon                           |                
   |                                                          |                
   |               Reference Electronic Structure             |                
   |         Orbital         Occupation         Energy        |                
   |            5s              2.000           -1.020        |                
   |            5p              6.000           -0.520        |                
   |            6s              1.000           -0.076        |                
   |                                                          |                
   |                 Pseudopotential Definition               |                
   |        Beta     l      e      Rc     scheme   norm       |                
   |          1      0   -1.020   2.191     qc      1         |                
   |          2      0   -0.076   2.191     qc      1         |                
   |          3      1   -0.520   2.191     qc      1         |                
   |         loc     2    0.000   2.191     pn      0         |                
   |                                                          |                
   | No charge augmentation                                   |                
   | Partial core correction Rc = 1.544                       |                
   ------------------------------------------------------------                
   | "2|2.2|4|5|6|50N:60N:51N(qc=5)"                          |                
   ------------------------------------------------------------                
   |      Author: Chris J. Pickard, Cambridge University      |                
   ============================================================                
 Warning: ion_atom_output_psp cannot write out meta-GGA pseudopotentials present
 ly.
 
 Atomic calculation performed for Ta:
 1s2 2s2 2p6 3s2 3p6 3d10 4s2 4p6 4d10 4f14 5s2 5p6 5d3 6s2
 
 Exceeded max iterations: converged to -0.014744927 eV
 The ae energy is -424726.928 eV
 
   ============================================================                
   | Pseudopotential Report - Date of generation  9-08-2024   |                
   ------------------------------------------------------------                
   | Element: Ta Ionic charge: 13.00 Level of theory: RSCAN   |                
   | Atomic Solver: Koelling-Harmon                           |                
   |                                                          |                
   |               Reference Electronic Structure             |                
   |         Orbital         Occupation         Energy        |                
   |            5s              2.000           -2.755        |                
   |            5p              6.000           -1.496        |                
   |            6s              2.000           -0.207        |                
   |            5d              3.000           -0.134        |                
   |                                                          |                
   |                 Pseudopotential Definition               |                
   |        Beta     l      e      Rc     scheme   norm       |                
   |          1      0   -2.755   1.794     qc      1         |                
   |          2      0   -0.207   1.794     qc      1         |                
   |          3      1   -1.496   1.794     qc      1         |                
   |          4      2   -0.134   1.794     qc      1         |                
   |         loc     2    0.000   1.794     pn      0         |                
   |                                                          |                
   | No charge augmentation                                   |                
   | Partial core correction Rc = 1.264                       |                
   ------------------------------------------------------------                
   | "2|1.8|12|14|16|50N:60N:51N:52N(qc=8)"                   |                
   ------------------------------------------------------------                
   |      Author: Chris J. Pickard, Cambridge University      |                
   ============================================================                
 Warning: ion_atom_output_psp cannot write out meta-GGA pseudopotentials present
 ly.
 
 Pseudo atomic calculation performed for O 2s2 2p4
 
 Converged in 34 iterations to a total energy of -427.9181 eV
 
 Pseudo atomic calculation performed for Cs 5s2 5p6 6s1
 
 Converged in 41 iterations to a total energy of -758.6401 eV
 
 Pseudo atomic calculation performed for Ta 5s2 5p6 5d3 6s2
 
 Converged in 42 iterations to a total energy of -1830.7277 eV
 Calculation parallelised over 18 processes.
 Data is distributed by G-vector(3-way) and k-point(6-way)

 ************************************ Title ************************************
 geo opt

 ***************************** General Parameters ******************************
  
 output verbosity                               : normal  (1)
 write checkpoint data to                       : Cs3TaO8.check
 type of calculation                            : geometry optimization
 stress calculation                             : off
 density difference calculation                 : off
 electron localisation func (ELF) calculation   : off
 Hirshfeld analysis                             : on
 molecular orbital projected DOS                : off
 deltaSCF calculation                           : off
 unlimited duration calculation
 timing information                             : on
 memory usage estimate                          : on
 write extra output files                       : on
 write final potential to formatted file        : off
 write final density to formatted file          : off
 write structure in CELL formatted file         : on
 write BibTeX reference list                    : on
 write OTFG pseudopotential files               : on
 write electrostatic potential file             : on
 write bands file                               : on
 checkpoint writing                             : both castep_bin and check files
  
 output         length unit                     : A
 output           mass unit                     : amu
 output           time unit                     : ps
 output         charge unit                     : e
 output           spin unit                     : hbar/2
 output         energy unit                     : eV
 output          force unit                     : eV/A
 output       velocity unit                     : A/ps
 output       pressure unit                     : GPa
 output     inv_length unit                     : 1/A
 output      frequency unit                     : cm-1
 output force constant unit                     : eV/A**2
 output         volume unit                     : A**3
 output   IR intensity unit                     : (D/A)**2/amu
 output         dipole unit                     : D
 output         efield unit                     : eV/A/e
 output        entropy unit                     : J/mol/K
 output    efield chi2 unit                     : pm/V
  
 wavefunctions paging                           : none
 random number generator seed                   : randomised (100116611)
 data distribution                              : optimal for this architecture
 optimization strategy                          : maximize speed(+++)

 *********************** Exchange-Correlation Parameters ***********************
  
 using functional                               : RSCAN
 relativistic treatment                         : Koelling-Harmon
 DFT+D: Semi-empirical dispersion correction    : off

 ************************* Pseudopotential Parameters **************************
  
 pseudopotential representation                 : reciprocal space
 <beta|phi> representation                      : reciprocal space
 spin-orbit coupling                            : off

 **************************** Basis Set Parameters *****************************
  
 plane wave basis set cut-off                   :   850.0000   eV
 size of standard grid                          :     1.7500
 size of   fine   gmax                          :    26.1388   1/A
 finite basis set correction                    : automatic
 number of sample energies                      :          3
           sample  spacing                      :     5.0000   eV

 **************************** Electronic Parameters ****************************
  
 number of  electrons                           :  176.0    
 net charge of system                           :  0.000    
 treating system as non-spin-polarized
 number of bands                                :         98

 ********************* Electronic Minimization Parameters **********************
  
 Method: Treating system as non-metallic,
         and number of  SD  steps               :          1
         and number of  CG  steps               :          4
  
 total energy / atom convergence tol.           : 0.1000E-09   eV
 eigen-energy convergence tolerance             : 0.2449E-10   eV
 max force / atom convergence tol.              : ignored
 convergence tolerance window                   :          3   cycles
 max. number of SCF cycles                      :        300
 periodic dipole correction                     : NONE

 ************************** Density Mixing Parameters **************************
  
 density-mixing scheme                          : Broyden
 max. length of mixing history                  :         20
 charge density mixing amplitude                : 0.8000    
 cut-off energy for mixing                      :  850.0       eV

 *********************** Population Analysis Parameters ************************
  
 Population analysis with cutoff                :  3.000       A
 Population analysis output                     : summary and pdos components

 ********************** Geometry Optimization Parameters ***********************
  
 optimization method                            : BFGS
 variable cell method                           : fixed basis quality
 max. number of steps                           :        300
 estimated bulk modulus                         :  500.0       GPa
 estimated <frequency>                          :  1668.       cm-1
 geom line minimiser                            : on
 with line minimiser tolerance                  :     0.4000
 total energy convergence tolerance             : 0.2000E-04   eV/atom
        max ionic |force| tolerance             : 0.1000E-01   eV/A
 max ionic |displacement| tolerance             : 0.1000E-02   A
   max |stress component| tolerance             : 0.1000       GPa
 convergence tolerance window                   :          2   steps
 backup results every                           :          5   steps
 write geom trajectory file                     : on

 *******************************************************************************
  
 
                           -------------------------------
                                      Unit Cell
                           -------------------------------
        Real Lattice(A)                      Reciprocal Lattice(1/A)
     7.4346950     0.0000000     0.0000000        0.845116754   0.000000000   0.000000000
     0.0000000     7.4346950     0.0000000        0.000000000   0.845116754   0.000000000
     0.0000000     0.0000000     8.2903781        0.000000000   0.000000000   0.757888872
 
                       Lattice parameters(A)       Cell Angles
                    a =      7.434695          alpha =   90.000000
                    b =      7.434695          beta  =   90.000000
                    c =      8.290378          gamma =   90.000000
 
                       Current cell volume =           458.248077       A**3
                                   density =             3.088543   AMU/A**3
                                           =             5.128646     g/cm^3
 
                           -------------------------------
                                     Cell Contents
                           -------------------------------
                         Total number of ions in cell =   24
                      Total number of species in cell =    3
                        Max number of any one species =   16
 
            xxxxxxxxxxxxxxxxxxxxxxxxxxxxxxxxxxxxxxxxxxxxxxxxxxxxxxxxxxxx
            x  Element    Atom        Fractional coordinates of atoms  x
            x            Number           u          v          w      x
            x----------------------------------------------------------x
            x  O            1         0.195969   0.195969   0.017375   x 
            x  O            2         0.804031   0.804031   0.017375   x 
            x  O            3         0.129416   0.129416   0.178104   x 
            x  O            4         0.870584   0.870584   0.178104   x 
            x  O            5         0.629416   0.370584   0.321896   x 
            x  O            6         0.370584   0.629416   0.321896   x 
            x  O            7         0.695969   0.304031   0.482625   x 
            x  O            8         0.304031   0.695969   0.482625   x 
            x  O            9         0.304031   0.304031   0.517375   x 
            x  O           10         0.695969   0.695969   0.517375   x 
            x  O           11         0.370584   0.370584   0.678104   x 
            x  O           12         0.629416   0.629416   0.678104   x 
            x  O           13         0.870584   0.129416   0.821896   x 
            x  O           14         0.129416   0.870584   0.821896   x 
            x  O           15         0.804031   0.195969   0.982625   x 
            x  O           16         0.195969   0.804031   0.982625   x 
            x  Cs           1         0.500000   0.500000   0.000000   x 
            x  Cs           2         0.500000   0.000000   0.250000   x 
            x  Cs           3         0.000000   0.500000   0.250000   x 
            x  Cs           4         0.000000   0.000000   0.500000   x 
            x  Cs           5         0.500000   0.000000   0.750000   x 
            x  Cs           6         0.000000   0.500000   0.750000   x 
            x  Ta           1         0.000000   0.000000   0.000000   x 
            x  Ta           2         0.500000   0.500000   0.500000   x 
            xxxxxxxxxxxxxxxxxxxxxxxxxxxxxxxxxxxxxxxxxxxxxxxxxxxxxxxxxxxx
 
 
                         No user defined ionic velocities
 
                           -------------------------------
                                   Details of Species
                           -------------------------------
 
                               Mass of species in AMU
                                    O   15.9994000
                                    Cs  132.9054500
                                    Ta  180.9479000
 
                          Electric Quadrupole Moment (Barn)
                                    O   -0.0255800 Isotope 17
                                    Cs   -0.0034300 Isotope133
                                    Ta    3.1700000 Isotope181
 
                          Files used for pseudopotentials:
                                    O 2|1.2|23|26|31|20NN:21NN(qc=9)
                                    Cs 2|2.2|4|5|6|50N:60N:51N(qc=5)
                                    Ta 2|1.8|12|14|16|50N:60N:51N:52N(qc=8)
 
                           -------------------------------
                              k-Points For BZ Sampling
                           -------------------------------
                       MP grid size for SCF calculation is  3  3  3
                            with an offset of   0.000  0.000  0.000
                       Number of kpoints used =             6
 
                           -------------------------------
                               Symmetry and Constraints
                           -------------------------------
 
                      Cell is a supercell containing 2 primitive cells
                      Maximum deviation from symmetry = 0.310000E-07     ANG
 
 !-----------------------------------------------------------------------------!
 !                                                                             !
 !                     * * *      W A R N I N G     * * *                      !
 !                                                                             !
 !   Atomic positions are slightly inconsistent with symmetry operations,      !
 !   (although the discrepancy is lower than value of SYMMETRY_TOL).           !
  !   In severe cases this could lead to seriously inaccurate results.         !
 !                                                                             !
 !   It is recommended that symmetries are satisfied to a tolerance of 1e-8au  !
 !   or better. Consider one or more of the following:                         !
 !     - Adjust input so that atomic positions and symmetry are consistent.    !
 !     - Use SNAP_TO_SYMMETRY keyword in the cell file to adjust co-ordinates. !
 !     - Reduce the value of SYMMETRY_TOL in the cell file.                    !
 !     - Remove incorrect symmetry operations from .cell file.                 !
 !                                                                             !
 !-----------------------------------------------------------------------------!
 
 
                      Number of symmetry operations   =          16
                      Number of ionic constraints     =           3
                      Point group of crystal =    13: D2d, -42m, -4 2 m
                      Space group of crystal =   121: I-42m, I -4 2
 
             Set iprint > 1 for details on symmetry rotations/translations
 
                         Centre of mass is constrained
             Set iprint > 1 for details of linear ionic constraints
 
                         Number of cell constraints= 4
                         Cell constraints are:  1 1 3 0 0 0
 
                         External pressure/stress (GPa)
                          0.00000   0.00000   0.00000
                                    0.00000   0.00000
                                              0.00000
  
+---------------- MEMORY AND SCRATCH DISK ESTIMATES PER PROCESS --------------+
|                                                     Memory          Disk    |
| Baseline code, static data and system overhead     3913.0 MB         0.0 MB |
| BLAS internal memory storage                          0.0 MB         0.0 MB |
| Model and support data                              138.2 MB         0.0 MB |
| Electronic energy minimisation requirements          98.5 MB         0.0 MB |
| Force calculation requirements                       14.6 MB         0.0 MB |
|                                               ----------------------------- |
| Approx. total storage required per process         4149.7 MB         0.0 MB |
|                                                                             |
| Requirements will fluctuate during execution and may exceed these estimates |
+-----------------------------------------------------------------------------+
Calculating finite basis set correction with  3 cut-off energies.
Calculating total energy with cut-off of  840.000 eV.
------------------------------------------------------------------------ <-- SCF
SCF loop      Energy                           Energy gain       Timer   <-- SCF
                                               per atom          (sec)   <-- SCF
------------------------------------------------------------------------ <-- SCF
Initial  -1.14675333E+004                                         21.06  <-- SCF
      1  -1.44716447E+004                    1.25171309E+002      54.25  <-- SCF
      2  -1.51948021E+004                    3.01315570E+001      88.90  <-- SCF
      3  -1.52256972E+004                    1.28729650E+000     124.07  <-- SCF
      4  -1.52180319E+004                   -3.19387311E-001     167.02  <-- SCF
      5  -1.52146965E+004                   -1.38973080E-001     211.61  <-- SCF
      6  -1.52157970E+004                    4.58544370E-002     256.35  <-- SCF
      7  -1.52158605E+004                    2.64413406E-003     303.32  <-- SCF
      8  -1.52158638E+004                    1.39510048E-004     348.38  <-- SCF
      9  -1.52158650E+004                    4.68894002E-005     392.08  <-- SCF
     10  -1.52158655E+004                    2.35325046E-005     441.86  <-- SCF
     11  -1.52158656E+004                    2.94627785E-006     489.41  <-- SCF
     12  -1.52158656E+004                    1.37876602E-006     533.71  <-- SCF
     13  -1.52158656E+004                    1.38545562E-007     580.16  <-- SCF
     14  -1.52158656E+004                    2.42679470E-008     621.39  <-- SCF
     15  -1.52158656E+004                   -6.17297396E-010     670.57  <-- SCF
     16  -1.52158656E+004                    1.51430566E-009     706.99  <-- SCF
     17  -1.52158656E+004                    6.05954283E-010     736.18  <-- SCF
     18  -1.52158656E+004                    1.66279733E-010     765.65  <-- SCF
     19  -1.52158656E+004                   -4.56302523E-011     792.38  <-- SCF
     20  -1.52158656E+004                    3.35137446E-011     821.49  <-- SCF
------------------------------------------------------------------------ <-- SCF
 
Final energy =  -15215.86564271     eV
(energy not corrected for finite basis set)
 
Calculating total energy with cut-off of  845.000 eV.
------------------------------------------------------------------------ <-- SCF
SCF loop      Energy                           Energy gain       Timer   <-- SCF
                                               per atom          (sec)   <-- SCF
------------------------------------------------------------------------ <-- SCF
Initial  -1.52158660E+004                                        828.66  <-- SCF
      1  -1.52160829E+004                    9.03406232E-003     866.05  <-- SCF
      2  -1.52160829E+004                    9.89571165E-007     907.07  <-- SCF
      3  -1.52160830E+004                    4.29025931E-006     951.24  <-- SCF
      4  -1.52160830E+004                    9.78469866E-008     993.55  <-- SCF
      5  -1.52160830E+004                   -1.59147364E-007    1034.03  <-- SCF
      6  -1.52160830E+004                    3.65723894E-008    1079.96  <-- SCF
      7  -1.52160830E+004                    1.00993669E-008    1122.56  <-- SCF
      8  -1.52160830E+004                   -3.38127903E-009    1163.08  <-- SCF
      9  -1.52160830E+004                   -6.53131323E-010    1191.76  <-- SCF
     10  -1.52160830E+004                    1.33152685E-010    1217.29  <-- SCF
     11  -1.52160830E+004                    3.76385132E-011    1245.27  <-- SCF
     12  -1.52160830E+004                   -2.70687937E-012    1271.97  <-- SCF
------------------------------------------------------------------------ <-- SCF
 
Final energy =  -15216.08298205     eV
(energy not corrected for finite basis set)
 
Calculating total energy with cut-off of  850.000 eV.
------------------------------------------------------------------------ <-- SCF
SCF loop      Energy                           Energy gain       Timer   <-- SCF
                                               per atom          (sec)   <-- SCF
------------------------------------------------------------------------ <-- SCF
Initial  -1.52160834E+004                                       1279.85  <-- SCF
      1  -1.52162910E+004                    8.64764619E-003    1318.33  <-- SCF
      2  -1.52162910E+004                    8.98760647E-007    1360.61  <-- SCF
      3  -1.52162911E+004                    3.97973152E-006    1401.48  <-- SCF
      4  -1.52162911E+004                    1.22104879E-007    1444.88  <-- SCF
      5  -1.52162911E+004                   -1.56922180E-007    1485.51  <-- SCF
      6  -1.52162911E+004                    3.71089960E-008    1530.43  <-- SCF
      7  -1.52162911E+004                    1.04149117E-008    1572.56  <-- SCF
      8  -1.52162911E+004                   -3.71474079E-009    1613.41  <-- SCF
      9  -1.52162911E+004                   -6.61251961E-010    1641.41  <-- SCF
     10  -1.52162911E+004                    1.07759579E-010    1668.57  <-- SCF
     11  -1.52162911E+004                    3.11935623E-011    1697.40  <-- SCF
     12  -1.52162911E+004                    1.67568723E-012    1726.30  <-- SCF
------------------------------------------------------------------------ <-- SCF
 
Final energy =  -15216.29108626     eV
(energy not corrected for finite basis set)
 
 For future reference: finite basis dEtot/dlog(Ecut) =     -35.473591eV
 Total energy corrected for finite basis set =  -15216.288867 eV
 
+---------------- MEMORY AND SCRATCH DISK ESTIMATES PER PROCESS --------------+
|                                                     Memory          Disk    |
| Model and support data                              148.2 MB         0.0 MB |
| Electronic energy minimisation requirements          98.5 MB         0.0 MB |
| Geometry minimisation requirements                  113.1 MB         0.0 MB |
|                                               ----------------------------- |
| Approx. total storage required per process          359.8 MB         0.0 MB |
|                                                                             |
| Requirements will fluctuate during execution and may exceed these estimates |
+-----------------------------------------------------------------------------+
 
 
 ******************************** Symmetrised Forces ********************************
 *                                                                                  *
 *                           Cartesian components (eV/A)                            *
 * -------------------------------------------------------------------------------- *
 *                         x                    y                    z              *
 *                                                                                  *
 * O               1     -0.41796             -0.41796              0.14949         *
 * O               2      0.41796              0.41796              0.14949         *
 * O               3     -0.15151             -0.15151             -0.49148         *
 * O               4      0.15151              0.15151             -0.49148         *
 * O               5     -0.15151              0.15151              0.49148         *
 * O               6      0.15151             -0.15151              0.49148         *
 * O               7     -0.41796              0.41796             -0.14949         *
 * O               8      0.41796             -0.41796             -0.14949         *
 * O               9      0.41796              0.41796              0.14949         *
 * O              10     -0.41796             -0.41796              0.14949         *
 * O              11      0.15151              0.15151             -0.49148         *
 * O              12     -0.15151             -0.15151             -0.49148         *
 * O              13      0.15151             -0.15151              0.49148         *
 * O              14     -0.15151              0.15151              0.49148         *
 * O              15      0.41796             -0.41796             -0.14949         *
 * O              16     -0.41796              0.41796             -0.14949         *
 * Cs              1     -0.00000             -0.00000              0.00000         *
 * Cs              2      0.00000              0.00000              0.00000         *
 * Cs              3     -0.00000              0.00000              0.00000         *
 * Cs              4     -0.00000             -0.00000              0.00000         *
 * Cs              5      0.00000             -0.00000              0.00000         *
 * Cs              6      0.00000              0.00000              0.00000         *
 * Ta              1      0.00000              0.00000              0.00000         *
 * Ta              2     -0.00000              0.00000              0.00000         *
 *                                                                                  *
 ************************************************************************************
 
 *********** Symmetrised Stress Tensor ***********
 *                                               *
 *          Cartesian components (GPa)           *
 * --------------------------------------------- *
 *             x             y             z     *
 *                                               *
 *  x      1.663324      0.000000     -0.000000  *
 *  y      0.000000      1.663324      0.000000  *
 *  z     -0.000000      0.000000      1.097641  *
 *                                               *
 *  Pressure:   -1.4748                          *
 *                                               *
 *************************************************
 BFGS: finished iteration     0 with enthalpy= -1.52162889E+004 eV
  
 +-----------+-----------------+-----------------+------------+-----+ <-- BFGS
 | Parameter |      value      |    tolerance    |    units   | OK? | <-- BFGS
 +-----------+-----------------+-----------------+------------+-----+ <-- BFGS
 |  dE/ion   |   0.000000E+000 |   2.000000E-005 |         eV | No  | <-- BFGS
 |  |F|max   |   6.096903E-001 |   1.000000E-002 |       eV/A | No  | <-- BFGS
 |  |dR|max  |   0.000000E+000 |   1.000000E-003 |          A | No  | <-- BFGS
 |   Smax    |   1.663324E+000 |   1.000000E-001 |        GPa | No  | <-- BFGS
 +-----------+-----------------+-----------------+------------+-----+ <-- BFGS
  

================================================================================
 Starting BFGS iteration          1 ...
================================================================================
  
 +------------+-------------+-------------+-----------------+ <-- min BFGS
 |    Step    |   lambda    |   F.delta'  |    enthalpy     | <-- min BFGS
 +------------+-------------+-------------+-----------------+ <-- min BFGS
 |  previous  |    0.000000 |    0.441040 |   -15216.288867 | <-- min BFGS
 +------------+-------------+-------------+-----------------+ <-- min BFGS
  

--------------------------------------------------------------------------------
 BFGS: starting iteration         1 with trial guess (lambda=  1.000000)
--------------------------------------------------------------------------------
 
                           -------------------------------
                                      Unit Cell
                           -------------------------------
        Real Lattice(A)              Reciprocal Lattice(1/A)
     7.4264508     0.0000000     0.0000000        0.846054930   0.000000000   0.000000000
     0.0000000     7.4264508     0.0000000        0.000000000   0.846054930   0.000000000
     0.0000000     0.0000000     8.2843115        0.000000000   0.000000000   0.758443872
 
                       Lattice parameters(A)       Cell Angles
                    a =      7.426451          alpha =   90.000000
                    b =      7.426451          beta  =   90.000000
                    c =      8.284312          gamma =   90.000000
 
                Current cell volume =           456.897770 A**3
                            density =             3.097671 amu/A**3
                                    =             5.143803 g/cm^3
 
                           -------------------------------
                                     Cell Contents
                           -------------------------------
 
            xxxxxxxxxxxxxxxxxxxxxxxxxxxxxxxxxxxxxxxxxxxxxxxxxxxxxxxxxxxxxxxxx
            x  Element         Atom        Fractional coordinates of atoms  x
            x                 Number           u          v          w      x
            x---------------------------------------------------------------x
            x  O                 1         0.195876   0.195876   0.017405   x
            x  O                 2         0.804124   0.804124   0.017405   x
            x  O                 3         0.129382   0.129382   0.178006   x
            x  O                 4         0.870618   0.870618   0.178006   x
            x  O                 5         0.629382   0.370618   0.321994   x
            x  O                 6         0.370618   0.629382   0.321994   x
            x  O                 7         0.695876   0.304124   0.482595   x
            x  O                 8         0.304124   0.695876   0.482595   x
            x  O                 9         0.304124   0.304124   0.517405   x
            x  O                10         0.695876   0.695876   0.517405   x
            x  O                11         0.370618   0.370618   0.678006   x
            x  O                12         0.629382   0.629382   0.678006   x
            x  O                13         0.870618   0.129382   0.821994   x
            x  O                14         0.129382   0.870618   0.821994   x
            x  O                15         0.804124   0.195876   0.982595   x
            x  O                16         0.195876   0.804124   0.982595   x
            x  Cs                1         0.500000   0.500000   0.000000   x
            x  Cs                2         0.500000   0.000000   0.250000   x
            x  Cs                3         0.000000   0.500000   0.250000   x
            x  Cs                4         0.000000   0.000000   0.500000   x
            x  Cs                5         0.500000   0.000000   0.750000   x
            x  Cs                6         0.000000   0.500000   0.750000   x
            x  Ta                1        -0.000000   0.000000   0.000000   x
            x  Ta                2         0.500000   0.500000   0.500000   x
            xxxxxxxxxxxxxxxxxxxxxxxxxxxxxxxxxxxxxxxxxxxxxxxxxxxxxxxxxxxxxxxxx
 
 
------------------------------------------------------------------------ <-- SCF
SCF loop      Energy                           Energy gain       Timer   <-- SCF
                                               per atom          (sec)   <-- SCF
------------------------------------------------------------------------ <-- SCF
Initial  -1.52162458E+004                                       1749.38  <-- SCF
      1  -1.52163246E+004                    3.28187460E-003    1788.44  <-- SCF
      2  -1.52163257E+004                    4.70966997E-005    1841.98  <-- SCF
      3  -1.52163085E+004                   -7.18043513E-004    1888.26  <-- SCF
      4  -1.52163054E+004                   -1.27500290E-004    1934.32  <-- SCF
      5  -1.52163057E+004                    1.01178900E-005    1983.54  <-- SCF
      6  -1.52163056E+004                   -9.99639725E-007    2030.84  <-- SCF
      7  -1.52163056E+004                   -2.98998673E-007    2079.10  <-- SCF
      8  -1.52163056E+004                   -9.23650403E-008    2124.38  <-- SCF
      9  -1.52163056E+004                    2.48130609E-009    2173.65  <-- SCF
     10  -1.52163056E+004                   -1.98169350E-009    2216.32  <-- SCF
     11  -1.52163056E+004                   -2.74632247E-009    2258.62  <-- SCF
     12  -1.52163056E+004                   -3.06392965E-010    2287.66  <-- SCF
     13  -1.52163056E+004                    1.26192138E-010    2317.32  <-- SCF
     14  -1.52163056E+004                    9.88655467E-011    2346.55  <-- SCF
     15  -1.52163056E+004                   -2.90022790E-011    2374.73  <-- SCF
------------------------------------------------------------------------ <-- SCF
 
Final energy =  -15216.30562478     eV
(energy not corrected for finite basis set)
 
 
 ******************************** Symmetrised Forces ********************************
 *                                                                                  *
 *                           Cartesian components (eV/A)                            *
 * -------------------------------------------------------------------------------- *
 *                         x                    y                    z              *
 *                                                                                  *
 * O               1     -0.37502             -0.37502              0.11618         *
 * O               2      0.37502              0.37502              0.11618         *
 * O               3     -0.14492             -0.14492             -0.43140         *
 * O               4      0.14492              0.14492             -0.43140         *
 * O               5     -0.14492              0.14492              0.43140         *
 * O               6      0.14492             -0.14492              0.43140         *
 * O               7     -0.37502              0.37502             -0.11618         *
 * O               8      0.37502             -0.37502             -0.11618         *
 * O               9      0.37502              0.37502              0.11618         *
 * O              10     -0.37502             -0.37502              0.11618         *
 * O              11      0.14492              0.14492             -0.43140         *
 * O              12     -0.14492             -0.14492             -0.43140         *
 * O              13      0.14492             -0.14492              0.43140         *
 * O              14     -0.14492              0.14492              0.43140         *
 * O              15      0.37502             -0.37502             -0.11618         *
 * O              16     -0.37502              0.37502             -0.11618         *
 * Cs              1      0.00000              0.00000             -0.00000         *
 * Cs              2      0.00000             -0.00000             -0.00000         *
 * Cs              3     -0.00000             -0.00000             -0.00000         *
 * Cs              4      0.00000              0.00000             -0.00000         *
 * Cs              5     -0.00000             -0.00000             -0.00000         *
 * Cs              6      0.00000             -0.00000             -0.00000         *
 * Ta              1     -0.00000             -0.00000             -0.00000         *
 * Ta              2     -0.00000             -0.00000             -0.00000         *
 *                                                                                  *
 ************************************************************************************
 
 *********** Symmetrised Stress Tensor ***********
 *                                               *
 *          Cartesian components (GPa)           *
 * --------------------------------------------- *
 *             x             y             z     *
 *                                               *
 *  x      1.388494      0.000000      0.000000  *
 *  y      0.000000      1.388494      0.000000  *
 *  z      0.000000      0.000000      0.768558  *
 *                                               *
 *  Pressure:   -1.1818                          *
 *                                               *
 *************************************************
  
 +------------+-------------+-------------+-----------------+ <-- min BFGS
 |    Step    |   lambda    |   F.delta'  |    enthalpy     | <-- min BFGS
 +------------+-------------+-------------+-----------------+ <-- min BFGS
 |  previous  |    0.000000 |    0.441040 |   -15216.288867 | <-- min BFGS
 | trial step |    1.000000 |    0.371189 |   -15216.311316 | <-- min BFGS
 +------------+-------------+-------------+-----------------+ <-- min BFGS
  

--------------------------------------------------------------------------------
 BFGS: improving iteration         1 with line minimization (lambda=  6.313993)
--------------------------------------------------------------------------------
 
                           -------------------------------
                                      Unit Cell
                           -------------------------------
        Real Lattice(A)              Reciprocal Lattice(1/A)
     7.3826412     0.0000000     0.0000000        0.851075538   0.000000000   0.000000000
     0.0000000     7.3826412     0.0000000        0.000000000   0.851075538   0.000000000
     0.0000000     0.0000000     8.2520738        0.000000000   0.000000000   0.761406825
 
                       Lattice parameters(A)       Cell Angles
                    a =      7.382641          alpha =   90.000000
                    b =      7.382641          beta  =   90.000000
                    c =      8.252074          gamma =   90.000000
 
                Current cell volume =           449.766002 A**3
                            density =             3.146789 amu/A**3
                                    =             5.225367 g/cm^3
 
                           -------------------------------
                                     Cell Contents
                           -------------------------------
 
            xxxxxxxxxxxxxxxxxxxxxxxxxxxxxxxxxxxxxxxxxxxxxxxxxxxxxxxxxxxxxxxxx
            x  Element         Atom        Fractional coordinates of atoms  x
            x                 Number           u          v          w      x
            x---------------------------------------------------------------x
            x  O                 1         0.195381   0.195381   0.017564   x
            x  O                 2         0.804619   0.804619   0.017564   x
            x  O                 3         0.129203   0.129203   0.177484   x
            x  O                 4         0.870797   0.870797   0.177484   x
            x  O                 5         0.629203   0.370797   0.322516   x
            x  O                 6         0.370797   0.629203   0.322516   x
            x  O                 7         0.695381   0.304619   0.482436   x
            x  O                 8         0.304619   0.695381   0.482436   x
            x  O                 9         0.304619   0.304619   0.517564   x
            x  O                10         0.695381   0.695381   0.517564   x
            x  O                11         0.370797   0.370797   0.677484   x
            x  O                12         0.629203   0.629203   0.677484   x
            x  O                13         0.870797   0.129203   0.822516   x
            x  O                14         0.129203   0.870797   0.822516   x
            x  O                15         0.804619   0.195381   0.982436   x
            x  O                16         0.195381   0.804619   0.982436   x
            x  Cs                1         0.500000   0.500000   0.000000   x
            x  Cs                2         0.500000   0.000000   0.250000   x
            x  Cs                3         0.000000   0.500000   0.250000   x
            x  Cs                4         0.000000   0.000000   0.500000   x
            x  Cs                5         0.500000   0.000000   0.750000   x
            x  Cs                6         0.000000   0.500000   0.750000   x
            x  Ta                1        -0.000000   0.000000   0.000000   x
            x  Ta                2         0.500000   0.500000   0.500000   x
            xxxxxxxxxxxxxxxxxxxxxxxxxxxxxxxxxxxxxxxxxxxxxxxxxxxxxxxxxxxxxxxxx
 
 
------------------------------------------------------------------------ <-- SCF
SCF loop      Energy                           Energy gain       Timer   <-- SCF
                                               per atom          (sec)   <-- SCF
------------------------------------------------------------------------ <-- SCF
Initial  -1.52146630E+004                                       2399.67  <-- SCF
      1  -1.52169071E+004                    9.35048013E-002    2434.46  <-- SCF
      2  -1.52169379E+004                    1.28371664E-003    2486.04  <-- SCF
      3  -1.52164499E+004                   -2.03316101E-002    2531.38  <-- SCF
      4  -1.52163666E+004                   -3.47405678E-003    2573.31  <-- SCF
      5  -1.52163727E+004                    2.54681982E-004    2617.55  <-- SCF
      6  -1.52163720E+004                   -2.76672014E-005    2662.99  <-- SCF
      7  -1.52163719E+004                   -6.20747598E-006    2708.30  <-- SCF
      8  -1.52163718E+004                   -2.20643023E-006    2751.76  <-- SCF
      9  -1.52163718E+004                   -1.79350093E-009    2796.06  <-- SCF
     10  -1.52163718E+004                   -6.55305850E-008    2841.03  <-- SCF
     11  -1.52163718E+004                   -1.61320988E-008    2888.16  <-- SCF
     12  -1.52163718E+004                   -6.49393252E-010    2933.04  <-- SCF
     13  -1.52163718E+004                   -9.70867402E-010    2975.40  <-- SCF
     14  -1.52163718E+004                   -1.28899018E-011    3009.83  <-- SCF
     15  -1.52163718E+004                   -1.02990315E-010    3035.58  <-- SCF
     16  -1.52163718E+004                    1.53389831E-011    3064.36  <-- SCF
     17  -1.52163718E+004                    1.98504487E-011    3089.70  <-- SCF
------------------------------------------------------------------------ <-- SCF
 
Final energy =  -15216.37179731     eV
(energy not corrected for finite basis set)
 
 
 ******************************** Symmetrised Forces ********************************
 *                                                                                  *
 *                           Cartesian components (eV/A)                            *
 * -------------------------------------------------------------------------------- *
 *                         x                    y                    z              *
 *                                                                                  *
 * O               1     -0.13311             -0.13311             -0.07183         *
 * O               2      0.13311              0.13311             -0.07183         *
 * O               3     -0.10839             -0.10839             -0.09343         *
 * O               4      0.10839              0.10839             -0.09343         *
 * O               5     -0.10839              0.10839              0.09343         *
 * O               6      0.10839             -0.10839              0.09343         *
 * O               7     -0.13311              0.13311              0.07183         *
 * O               8      0.13311             -0.13311              0.07183         *
 * O               9      0.13311              0.13311             -0.07183         *
 * O              10     -0.13311             -0.13311             -0.07183         *
 * O              11      0.10839              0.10839             -0.09343         *
 * O              12     -0.10839             -0.10839             -0.09343         *
 * O              13      0.10839             -0.10839              0.09343         *
 * O              14     -0.10839              0.10839              0.09343         *
 * O              15      0.13311             -0.13311              0.07183         *
 * O              16     -0.13311              0.13311              0.07183         *
 * Cs              1     -0.00000             -0.00000              0.00000         *
 * Cs              2     -0.00000             -0.00000              0.00000         *
 * Cs              3     -0.00000              0.00000              0.00000         *
 * Cs              4     -0.00000             -0.00000              0.00000         *
 * Cs              5     -0.00000              0.00000              0.00000         *
 * Cs              6     -0.00000             -0.00000              0.00000         *
 * Ta              1      0.00000              0.00000              0.00000         *
 * Ta              2      0.00000             -0.00000              0.00000         *
 *                                                                                  *
 ************************************************************************************
 
 *********** Symmetrised Stress Tensor ***********
 *                                               *
 *          Cartesian components (GPa)           *
 * --------------------------------------------- *
 *             x             y             z     *
 *                                               *
 *  x     -0.284641      0.000000      0.000000  *
 *  y      0.000000     -0.284641      0.000000  *
 *  z      0.000000      0.000000     -1.101188  *
 *                                               *
 *  Pressure:    0.5568                          *
 *                                               *
 *************************************************
  
 +------------+-------------+-------------+-----------------+ <-- min BFGS
 |    Step    |   lambda    |   F.delta'  |    enthalpy     | <-- min BFGS
 +------------+-------------+-------------+-----------------+ <-- min BFGS
 |  previous  |    0.000000 |    0.441040 |   -15216.288867 | <-- min BFGS
 | trial step |    1.000000 |    0.371189 |   -15216.311316 | <-- min BFGS
 |  line step |    6.313993 |   -0.034623 |   -15216.371707 | <-- min BFGS
 +------------+-------------+-------------+-----------------+ <-- min BFGS
  
 BFGS: finished iteration     1 with enthalpy= -1.52163717E+004 eV
  
 +-----------+-----------------+-----------------+------------+-----+ <-- BFGS
 | Parameter |      value      |    tolerance    |    units   | OK? | <-- BFGS
 +-----------+-----------------+-----------------+------------+-----+ <-- BFGS
 |  dE/ion   |   3.451684E-003 |   2.000000E-005 |         eV | No  | <-- BFGS
 |  |F|max   |   2.014854E-001 |   1.000000E-002 |       eV/A | No  | <-- BFGS
 |  |dR|max  |   6.337867E-003 |   1.000000E-003 |          A | No  | <-- BFGS
 |   Smax    |   1.101188E+000 |   1.000000E-001 |        GPa | No  | <-- BFGS
 +-----------+-----------------+-----------------+------------+-----+ <-- BFGS
  

================================================================================
 Starting BFGS iteration          2 ...
================================================================================
  
 +------------+-------------+-------------+-----------------+ <-- min BFGS
 |    Step    |   lambda    |   F.delta'  |    enthalpy     | <-- min BFGS
 +------------+-------------+-------------+-----------------+ <-- min BFGS
 |  previous  |    0.000000 |    0.125860 |   -15216.371707 | <-- min BFGS
 +------------+-------------+-------------+-----------------+ <-- min BFGS
  

--------------------------------------------------------------------------------
 BFGS: starting iteration         2 with trial guess (lambda=  1.000000)
--------------------------------------------------------------------------------
 
                           -------------------------------
                                      Unit Cell
                           -------------------------------
        Real Lattice(A)              Reciprocal Lattice(1/A)
     7.3860167     0.0000000     0.0000000        0.850686587   0.000000000   0.000000000
     0.0000000     7.3860167     0.0000000        0.000000000   0.850686587   0.000000000
     0.0000000     0.0000000     8.2591707        0.000000000   0.000000000   0.760752569
 
                       Lattice parameters(A)       Cell Angles
                    a =      7.386017          alpha =   90.000000
                    b =      7.386017          beta  =   90.000000
                    c =      8.259171          gamma =   90.000000
 
                Current cell volume =           450.564538 A**3
                            density =             3.141212 amu/A**3
                                    =             5.216106 g/cm^3
 
                           -------------------------------
                                     Cell Contents
                           -------------------------------
 
            xxxxxxxxxxxxxxxxxxxxxxxxxxxxxxxxxxxxxxxxxxxxxxxxxxxxxxxxxxxxxxxxx
            x  Element         Atom        Fractional coordinates of atoms  x
            x                 Number           u          v          w      x
            x---------------------------------------------------------------x
            x  O                 1         0.195377   0.195377   0.017543   x
            x  O                 2         0.804623   0.804623   0.017543   x
            x  O                 3         0.129189   0.129189   0.177491   x
            x  O                 4         0.870811   0.870811   0.177491   x
            x  O                 5         0.629189   0.370811   0.322509   x
            x  O                 6         0.370811   0.629189   0.322509   x
            x  O                 7         0.695377   0.304623   0.482457   x
            x  O                 8         0.304623   0.695377   0.482457   x
            x  O                 9         0.304623   0.304623   0.517543   x
            x  O                10         0.695377   0.695377   0.517543   x
            x  O                11         0.370811   0.370811   0.677491   x
            x  O                12         0.629189   0.629189   0.677491   x
            x  O                13         0.870811   0.129189   0.822509   x
            x  O                14         0.129189   0.870811   0.822509   x
            x  O                15         0.804623   0.195377   0.982457   x
            x  O                16         0.195377   0.804623   0.982457   x
            x  Cs                1         0.500000   0.500000   0.000000   x
            x  Cs                2         0.500000  -0.000000   0.250000   x
            x  Cs                3         0.000000   0.500000   0.250000   x
            x  Cs                4         0.000000   0.000000   0.500000   x
            x  Cs                5         0.500000  -0.000000   0.750000   x
            x  Cs                6         0.000000   0.500000   0.750000   x
            x  Ta                1        -0.000000   0.000000   0.000000   x
            x  Ta                2         0.500000   0.500000   0.500000   x
            xxxxxxxxxxxxxxxxxxxxxxxxxxxxxxxxxxxxxxxxxxxxxxxxxxxxxxxxxxxxxxxxx
 
 
------------------------------------------------------------------------ <-- SCF
SCF loop      Energy                           Energy gain       Timer   <-- SCF
                                               per atom          (sec)   <-- SCF
------------------------------------------------------------------------ <-- SCF
Initial  -1.52163249E+004                                       3112.71  <-- SCF
      1  -1.52163719E+004                    1.96154511E-003    3148.61  <-- SCF
      2  -1.52163721E+004                    7.50953935E-006    3197.76  <-- SCF
      3  -1.52163690E+004                   -1.28237260E-004    3239.15  <-- SCF
      4  -1.52163689E+004                   -6.13236678E-006    3284.07  <-- SCF
      5  -1.52163689E+004                    4.12817150E-007    3325.49  <-- SCF
      6  -1.52163689E+004                   -4.15276544E-008    3370.52  <-- SCF
      7  -1.52163689E+004                    1.89185088E-008    3414.46  <-- SCF
      8  -1.52163689E+004                   -2.63521152E-009    3455.61  <-- SCF
      9  -1.52163689E+004                    9.28072928E-010    3495.66  <-- SCF
     10  -1.52163689E+004                    2.15390259E-010    3525.83  <-- SCF
     11  -1.52163689E+004                   -3.95075490E-010    3553.07  <-- SCF
     12  -1.52163689E+004                    4.11187867E-011    3579.82  <-- SCF
     13  -1.52163689E+004                   -8.37843616E-012    3607.35  <-- SCF
------------------------------------------------------------------------ <-- SCF
 
Final energy =  -15216.36889822     eV
(energy not corrected for finite basis set)
 
 
 ******************************** Symmetrised Forces ********************************
 *                                                                                  *
 *                           Cartesian components (eV/A)                            *
 * -------------------------------------------------------------------------------- *
 *                         x                    y                    z              *
 *                                                                                  *
 * O               1     -0.15161             -0.15161             -0.05040         *
 * O               2      0.15161              0.15161             -0.05040         *
 * O               3     -0.10977             -0.10977             -0.13395         *
 * O               4      0.10977              0.10977             -0.13395         *
 * O               5     -0.10977              0.10977              0.13395         *
 * O               6      0.10977             -0.10977              0.13395         *
 * O               7     -0.15161              0.15161              0.05040         *
 * O               8      0.15161             -0.15161              0.05040         *
 * O               9      0.15161              0.15161             -0.05040         *
 * O              10     -0.15161             -0.15161             -0.05040         *
 * O              11      0.10977              0.10977             -0.13395         *
 * O              12     -0.10977             -0.10977             -0.13395         *
 * O              13      0.10977             -0.10977              0.13395         *
 * O              14     -0.10977              0.10977              0.13395         *
 * O              15      0.15161             -0.15161              0.05040         *
 * O              16     -0.15161              0.15161              0.05040         *
 * Cs              1      0.00000             -0.00000              0.00000         *
 * Cs              2      0.00000             -0.00000              0.00000         *
 * Cs              3      0.00000             -0.00000              0.00000         *
 * Cs              4      0.00000             -0.00000              0.00000         *
 * Cs              5      0.00000             -0.00000              0.00000         *
 * Cs              6      0.00000             -0.00000              0.00000         *
 * Ta              1      0.00000             -0.00000              0.00000         *
 * Ta              2      0.00000             -0.00000              0.00000         *
 *                                                                                  *
 ************************************************************************************
 
 *********** Symmetrised Stress Tensor ***********
 *                                               *
 *          Cartesian components (GPa)           *
 * --------------------------------------------- *
 *             x             y             z     *
 *                                               *
 *  x     -0.152734      0.000000      0.000000  *
 *  y      0.000000     -0.152734      0.000000  *
 *  z      0.000000      0.000000     -0.880175  *
 *                                               *
 *  Pressure:    0.3952                          *
 *                                               *
 *************************************************
  
 +------------+-------------+-------------+-----------------+ <-- min BFGS
 |    Step    |   lambda    |   F.delta'  |    enthalpy     | <-- min BFGS
 +------------+-------------+-------------+-----------------+ <-- min BFGS
 |  previous  |    0.000000 |    0.125860 |   -15216.371707 | <-- min BFGS
 | trial step |    1.000000 |    0.094746 |   -15216.372310 | <-- min BFGS
 +------------+-------------+-------------+-----------------+ <-- min BFGS
  

--------------------------------------------------------------------------------
 BFGS: improving iteration         2 with line minimization (lambda=  4.045088)
--------------------------------------------------------------------------------
 
                           -------------------------------
                                      Unit Cell
                           -------------------------------
        Real Lattice(A)              Reciprocal Lattice(1/A)
     7.3962954     0.0000000     0.0000000        0.849504381   0.000000000   0.000000000
     0.0000000     7.3962954     0.0000000        0.000000000   0.849504381   0.000000000
     0.0000000     0.0000000     8.2807813        0.000000000   0.000000000   0.758767209
 
                       Lattice parameters(A)       Cell Angles
                    a =      7.396295          alpha =   90.000000
                    b =      7.396295          beta  =   90.000000
                    c =      8.280781          gamma =   90.000000
 
                Current cell volume =           453.001672 A**3
                            density =             3.124313 amu/A**3
                                    =             5.188043 g/cm^3
 
                           -------------------------------
                                     Cell Contents
                           -------------------------------
 
            xxxxxxxxxxxxxxxxxxxxxxxxxxxxxxxxxxxxxxxxxxxxxxxxxxxxxxxxxxxxxxxxx
            x  Element         Atom        Fractional coordinates of atoms  x
            x                 Number           u          v          w      x
            x---------------------------------------------------------------x
            x  O                 1         0.195366   0.195366   0.017480   x
            x  O                 2         0.804634   0.804634   0.017480   x
            x  O                 3         0.129147   0.129147   0.177515   x
            x  O                 4         0.870853   0.870853   0.177515   x
            x  O                 5         0.629147   0.370853   0.322485   x
            x  O                 6         0.370853   0.629147   0.322485   x
            x  O                 7         0.695366   0.304634   0.482520   x
            x  O                 8         0.304634   0.695366   0.482520   x
            x  O                 9         0.304634   0.304634   0.517480   x
            x  O                10         0.695366   0.695366   0.517480   x
            x  O                11         0.370853   0.370853   0.677515   x
            x  O                12         0.629147   0.629147   0.677515   x
            x  O                13         0.870853   0.129147   0.822485   x
            x  O                14         0.129147   0.870853   0.822485   x
            x  O                15         0.804634   0.195366   0.982520   x
            x  O                16         0.195366   0.804634   0.982520   x
            x  Cs                1         0.500000   0.500000   0.000000   x
            x  Cs                2         0.500000  -0.000000   0.250000   x
            x  Cs                3         0.000000   0.500000   0.250000   x
            x  Cs                4         0.000000   0.000000   0.500000   x
            x  Cs                5         0.500000  -0.000000   0.750000   x
            x  Cs                6         0.000000   0.500000   0.750000   x
            x  Ta                1        -0.000000   0.000000   0.000000   x
            x  Ta                2         0.500000   0.500000   0.500000   x
            xxxxxxxxxxxxxxxxxxxxxxxxxxxxxxxxxxxxxxxxxxxxxxxxxxxxxxxxxxxxxxxxx
 
 
------------------------------------------------------------------------ <-- SCF
SCF loop      Energy                           Energy gain       Timer   <-- SCF
                                               per atom          (sec)   <-- SCF
------------------------------------------------------------------------ <-- SCF
Initial  -1.52161693E+004                                       3630.19  <-- SCF
      1  -1.52163864E+004                    9.04664338E-003    3670.08  <-- SCF
      2  -1.52163880E+004                    6.80754314E-005    3718.72  <-- SCF
      3  -1.52163596E+004                   -1.18619793E-003    3760.98  <-- SCF
      4  -1.52163582E+004                   -5.71597236E-005    3804.96  <-- SCF
      5  -1.52163583E+004                    4.23629754E-006    3847.93  <-- SCF
      6  -1.52163583E+004                   -4.25265702E-007    3892.48  <-- SCF
      7  -1.52163583E+004                    1.88218604E-007    3937.51  <-- SCF
      8  -1.52163583E+004                    6.95023504E-010    3982.39  <-- SCF
      9  -1.52163583E+004                    1.45695849E-008    4027.69  <-- SCF
     10  -1.52163583E+004                    1.83693990E-009    4061.29  <-- SCF
     11  -1.52163583E+004                   -8.53698195E-010    4098.73  <-- SCF
     12  -1.52163583E+004                   -1.58674691E-010    4124.38  <-- SCF
     13  -1.52163583E+004                   -1.23743057E-010    4153.13  <-- SCF
     14  -1.52163583E+004                   -2.52642075E-011    4182.78  <-- SCF
     15  -1.52163583E+004                   -3.55761289E-011    4210.77  <-- SCF
------------------------------------------------------------------------ <-- SCF
 
Final energy =  -15216.35827651     eV
(energy not corrected for finite basis set)
 
 
 ******************************** Symmetrised Forces ********************************
 *                                                                                  *
 *                           Cartesian components (eV/A)                            *
 * -------------------------------------------------------------------------------- *
 *                         x                    y                    z              *
 *                                                                                  *
 * O               1     -0.20562             -0.20562              0.01214         *
 * O               2      0.20562              0.20562              0.01214         *
 * O               3     -0.11460             -0.11460             -0.25396         *
 * O               4      0.11460              0.11460             -0.25396         *
 * O               5     -0.11460              0.11460              0.25396         *
 * O               6      0.11460             -0.11460              0.25396         *
 * O               7     -0.20562              0.20562             -0.01214         *
 * O               8      0.20562             -0.20562             -0.01214         *
 * O               9      0.20562              0.20562              0.01214         *
 * O              10     -0.20562             -0.20562              0.01214         *
 * O              11      0.11460              0.11460             -0.25396         *
 * O              12     -0.11460             -0.11460             -0.25396         *
 * O              13      0.11460             -0.11460              0.25396         *
 * O              14     -0.11460              0.11460              0.25396         *
 * O              15      0.20562             -0.20562             -0.01214         *
 * O              16     -0.20562              0.20562             -0.01214         *
 * Cs              1     -0.00000              0.00000             -0.00000         *
 * Cs              2      0.00000             -0.00000             -0.00000         *
 * Cs              3      0.00000              0.00000             -0.00000         *
 * Cs              4     -0.00000             -0.00000             -0.00000         *
 * Cs              5      0.00000              0.00000             -0.00000         *
 * Cs              6      0.00000              0.00000             -0.00000         *
 * Ta              1      0.00000             -0.00000             -0.00000         *
 * Ta              2      0.00000             -0.00000             -0.00000         *
 *                                                                                  *
 ************************************************************************************
 
 *********** Symmetrised Stress Tensor ***********
 *                                               *
 *          Cartesian components (GPa)           *
 * --------------------------------------------- *
 *             x             y             z     *
 *                                               *
 *  x      0.240316      0.000000      0.000000  *
 *  y      0.000000      0.240316      0.000000  *
 *  z      0.000000      0.000000     -0.235737  *
 *                                               *
 *  Pressure:   -0.0816                          *
 *                                               *
 *************************************************
  
 +------------+-------------+-------------+-----------------+ <-- min BFGS
 |    Step    |   lambda    |   F.delta'  |    enthalpy     | <-- min BFGS
 +------------+-------------+-------------+-----------------+ <-- min BFGS
 |  previous  |    0.000000 |    0.125860 |   -15216.371707 | <-- min BFGS
 | trial step |    1.000000 |    0.094746 |   -15216.372310 | <-- min BFGS
 |  line step |    4.045088 |    0.002907 |   -15216.365687 | <-- min BFGS
 +------------+-------------+-------------+-----------------+ <-- min BFGS
  
 BFGS: finished iteration     2 with enthalpy= -1.52163657E+004 eV
  
 +-----------+-----------------+-----------------+------------+-----+ <-- BFGS
 | Parameter |      value      |    tolerance    |    units   | OK? | <-- BFGS
 +-----------+-----------------+-----------------+------------+-----+ <-- BFGS
 |  dE/ion   |   2.508548E-004 |   2.000000E-005 |         eV | No  | <-- BFGS
 |  |F|max   |   3.012682E-001 |   1.000000E-002 |       eV/A | No  | <-- BFGS
 |  |dR|max  |   7.151357E-004 |   1.000000E-003 |          A | Yes | <-- BFGS
 |   Smax    |   2.403158E-001 |   1.000000E-001 |        GPa | No  | <-- BFGS
 +-----------+-----------------+-----------------+------------+-----+ <-- BFGS
  

================================================================================
 Starting BFGS iteration          3 ...
================================================================================
  
 +------------+-------------+-------------+-----------------+ <-- min BFGS
 |    Step    |   lambda    |   F.delta'  |    enthalpy     | <-- min BFGS
 +------------+-------------+-------------+-----------------+ <-- min BFGS
 |  previous  |    0.000000 |    0.181080 |   -15216.365687 | <-- min BFGS
 +------------+-------------+-------------+-----------------+ <-- min BFGS
  

--------------------------------------------------------------------------------
 BFGS: starting iteration         3 with trial guess (lambda=  1.000000)
--------------------------------------------------------------------------------
 
                           -------------------------------
                                      Unit Cell
                           -------------------------------
        Real Lattice(A)              Reciprocal Lattice(1/A)
     7.3941735     0.0000000     0.0000000        0.849748162   0.000000000   0.000000000
     0.0000000     7.3941735     0.0000000        0.000000000   0.849748162   0.000000000
     0.0000000     0.0000000     8.2965894        0.000000000   0.000000000   0.757321476
 
                       Lattice parameters(A)       Cell Angles
                    a =      7.394173          alpha =   90.000000
                    b =      7.394173          beta  =   90.000000
                    c =      8.296589          gamma =   90.000000
 
                Current cell volume =           453.606078 A**3
                            density =             3.120150 amu/A**3
                                    =             5.181131 g/cm^3
 
                           -------------------------------
                                     Cell Contents
                           -------------------------------
 
            xxxxxxxxxxxxxxxxxxxxxxxxxxxxxxxxxxxxxxxxxxxxxxxxxxxxxxxxxxxxxxxxx
            x  Element         Atom        Fractional coordinates of atoms  x
            x                 Number           u          v          w      x
            x---------------------------------------------------------------x
            x  O                 1         0.195171   0.195171   0.017457   x
            x  O                 2         0.804829   0.804829   0.017457   x
            x  O                 3         0.129027   0.129027   0.177344   x
            x  O                 4         0.870973   0.870973   0.177344   x
            x  O                 5         0.629027   0.370973   0.322656   x
            x  O                 6         0.370973   0.629027   0.322656   x
            x  O                 7         0.695171   0.304829   0.482543   x
            x  O                 8         0.304829   0.695171   0.482543   x
            x  O                 9         0.304829   0.304829   0.517457   x
            x  O                10         0.695171   0.695171   0.517457   x
            x  O                11         0.370973   0.370973   0.677344   x
            x  O                12         0.629027   0.629027   0.677344   x
            x  O                13         0.870973   0.129027   0.822656   x
            x  O                14         0.129027   0.870973   0.822656   x
            x  O                15         0.804829   0.195171   0.982543   x
            x  O                16         0.195171   0.804829   0.982543   x
            x  Cs                1         0.500000   0.500000   0.000000   x
            x  Cs                2         0.500000  -0.000000   0.250000   x
            x  Cs                3         0.000000   0.500000   0.250000   x
            x  Cs                4        -0.000000  -0.000000   0.500000   x
            x  Cs                5         0.500000  -0.000000   0.750000   x
            x  Cs                6         0.000000   0.500000   0.750000   x
            x  Ta                1        -0.000000   0.000000   0.000000   x
            x  Ta                2         0.500000   0.500000   0.500000   x
[...]
            x  O                10         0.693877   0.693877   0.515553   x
            x  O                11         0.371190   0.371190   0.670804   x
            x  O                12         0.628810   0.628810   0.670804   x
            x  O                13         0.871190   0.128810   0.829196   x
            x  O                14         0.128810   0.871190   0.829196   x
            x  O                15         0.806123   0.193877   0.984447   x
            x  O                16         0.193877   0.806123   0.984447   x
            x  Cs                1         0.500000   0.500000   0.000000   x
            x  Cs                2         0.500000  -0.000000   0.250000   x
            x  Cs                3        -0.000000   0.500000   0.250000   x
            x  Cs                4         0.000000   0.000000   0.500000   x
            x  Cs                5         0.500000  -0.000000   0.750000   x
            x  Cs                6        -0.000000   0.500000   0.750000   x
            x  Ta                1         0.000000   0.000000   0.000000   x
            x  Ta                2         0.500000   0.500000   0.500000   x
            xxxxxxxxxxxxxxxxxxxxxxxxxxxxxxxxxxxxxxxxxxxxxxxxxxxxxxxxxxxxxxxxx
 
 
 BFGS: Final Enthalpy     = -1.52163737E+004 eV
 BFGS: Final <frequency>  =     752.93808 cm-1
 BFGS: Final bulk modulus =      65.87871 GPa
 
 ******************************** Symmetrised Forces ********************************
 *                                                                                  *
 *                           Cartesian components (eV/A)                            *
 * -------------------------------------------------------------------------------- *
 *                         x                    y                    z              *
 *                                                                                  *
 * O               1      0.00107              0.00107             -0.00120         *
 * O               2     -0.00107             -0.00107             -0.00120         *
 * O               3     -0.00152             -0.00152              0.00173         *
 * O               4      0.00152              0.00152              0.00173         *
 * O               5     -0.00152              0.00152             -0.00173         *
 * O               6      0.00152             -0.00152             -0.00173         *
 * O               7      0.00107             -0.00107              0.00120         *
 * O               8     -0.00107              0.00107              0.00120         *
 * O               9     -0.00107             -0.00107             -0.00120         *
 * O              10      0.00107              0.00107             -0.00120         *
 * O              11      0.00152              0.00152              0.00173         *
 * O              12     -0.00152             -0.00152              0.00173         *
 * O              13      0.00152             -0.00152             -0.00173         *
 * O              14     -0.00152              0.00152             -0.00173         *
 * O              15     -0.00107              0.00107              0.00120         *
 * O              16      0.00107             -0.00107              0.00120         *
 * Cs              1      0.00000              0.00000             -0.00000         *
 * Cs              2     -0.00000              0.00000             -0.00000         *
 * Cs              3      0.00000              0.00000              0.00000         *
 * Cs              4     -0.00000              0.00000             -0.00000         *
 * Cs              5      0.00000              0.00000              0.00000         *
 * Cs              6      0.00000              0.00000             -0.00000         *
 * Ta              1     -0.00000              0.00000             -0.00000         *
 * Ta              2     -0.00000              0.00000             -0.00000         *
 *                                                                                  *
 ************************************************************************************
 
 *********** Symmetrised Stress Tensor ***********
 *                                               *
 *          Cartesian components (GPa)           *
 * --------------------------------------------- *
 *             x             y             z     *
 *                                               *
 *  x     -0.014478      0.000000     -0.000000  *
 *  y      0.000000     -0.014478      0.000000  *
 *  z     -0.000000      0.000000     -0.008392  *
 *                                               *
 *  Pressure:    0.0124                          *
 *                                               *
 *************************************************
 
 Pseudo atomic calculation performed for O 2s2 2p4
 
 Converged in 34 iterations to a total energy of -427.9181 eV
 
 Pseudo atomic calculation performed for Cs 5s2 5p6 6s1
 
 Converged in 41 iterations to a total energy of -758.6401 eV
 
 Pseudo atomic calculation performed for Ta 5s2 5p6 5d3 6s2
 
 Converged in 42 iterations to a total energy of -1830.7277 eV
Charge spilling parameter for spin component 1 = 0.35%
 
            Orbital Populations       
     Ion    Atom   Orbital             Charge
  -------------------------------------------
      O     1      S                    1.903
      O     1      Px                   1.762
      O     1      Py                   1.763
      O     1      Pz                   1.115
      O     2      S                    1.903
      O     2      Px                   1.760
      O     2      Py                   1.765
      O     2      Pz                   1.115
      O     3      S                    1.896
      O     3      Px                   1.699
      O     3      Py                   1.699
      O     3      Pz                   1.244
      O     4      S                    1.896
      O     4      Px                   1.699
      O     4      Py                   1.699
      O     4      Pz                   1.244
      O     5      S                    1.896
      O     5      Px                   1.700
      O     5      Py                   1.700
      O     5      Pz                   1.244
      O     6      S                    1.895
      O     6      Px                   1.699
      O     6      Py                   1.699
      O     6      Pz                   1.244
      O     7      S                    1.903
      O     7      Px                   1.759
      O     7      Py                   1.763
      O     7      Pz                   1.114
      O     8      S                    1.903
      O     8      Px                   1.761
      O     8      Py                   1.763
      O     8      Pz                   1.115
      O     9      S                    1.903
      O     9      Px                   1.760
      O     9      Py                   1.765
      O     9      Pz                   1.115
      O    10      S                    1.903
      O    10      Px                   1.762
      O    10      Py                   1.763
      O    10      Pz                   1.115
      O    11      S                    1.896
      O    11      Px                   1.699
      O    11      Py                   1.699
      O    11      Pz                   1.244
      O    12      S                    1.896
      O    12      Px                   1.699
      O    12      Py                   1.699
      O    12      Pz                   1.244
      O    13      S                    1.895
      O    13      Px                   1.699
      O    13      Py                   1.699
      O    13      Pz                   1.244
      O    14      S                    1.896
      O    14      Px                   1.700
      O    14      Py                   1.700
      O    14      Pz                   1.244
      O    15      S                    1.903
      O    15      Px                   1.761
      O    15      Py                   1.763
      O    15      Pz                   1.115
      O    16      S                    1.903
      O    16      Px                   1.759
      O    16      Py                   1.763
      O    16      Pz                   1.114
     Cs     1      S                    2.006
     Cs     1      Px                   2.021
     Cs     1      Py                   2.019
     Cs     1      Pz                   2.017
     Cs     1      S                    0.127
     Cs     1      Px                   0.082
     Cs     1      Py                   0.053
     Cs     1      Pz                   0.005
     Cs     2      S                    2.004
     Cs     2      Px                   2.009
     Cs     2      Py                   2.003
     Cs     2      Pz                   2.051
     Cs     2      S                    0.042
     Cs     2      Px                  -0.032
     Cs     2      Py                  -0.014
     Cs     2      Pz                  -0.040
     Cs     3      S                    2.004
     Cs     3      Px                   2.010
     Cs     3      Py                   2.003
     Cs     3      Pz                   2.051
     Cs     3      S                    0.042
     Cs     3      Px                  -0.037
     Cs     3      Py                  -0.009
     Cs     3      Pz                  -0.040
     Cs     4      S                    2.006
     Cs     4      Px                   2.021
     Cs     4      Py                   2.019
     Cs     4      Pz                   2.017
     Cs     4      S                    0.127
     Cs     4      Px                   0.082
     Cs     4      Py                   0.053
     Cs     4      Pz                   0.005
     Cs     5      S                    2.004
     Cs     5      Px                   2.010
     Cs     5      Py                   2.003
     Cs     5      Pz                   2.051
     Cs     5      S                    0.042
     Cs     5      Px                  -0.037
     Cs     5      Py                  -0.009
     Cs     5      Pz                  -0.040
     Cs     6      S                    2.004
     Cs     6      Px                   2.009
     Cs     6      Py                   2.003
     Cs     6      Pz                   2.051
     Cs     6      S                    0.042
     Cs     6      Px                  -0.032
     Cs     6      Py                  -0.014
     Cs     6      Pz                  -0.040
     Ta     1      S                    1.994
     Ta     1      Px                   1.987
     Ta     1      Py                   1.987
     Ta     1      Pz                   1.985
     Ta     1      S                    0.285
     Ta     1      Dzz                  0.594
     Ta     1      Dzy                  0.546
     Ta     1      Dzx                  0.547
     Ta     1      Dxx-yy               0.414
     Ta     1      Dxy                  0.517
     Ta     1      Px                   0.133
     Ta     1      Py                   0.131
     Ta     1      Pz                   0.179
     Ta     2      S                    1.994
     Ta     2      Px                   1.987
     Ta     2      Py                   1.987
     Ta     2      Pz                   1.985
     Ta     2      S                    0.285
     Ta     2      Dzz                  0.594
     Ta     2      Dzy                  0.546
     Ta     2      Dzx                  0.547
     Ta     2      Dxx-yy               0.414
     Ta     2      Dxy                  0.517
     Ta     2      Px                   0.133
     Ta     2      Py                   0.131
     Ta     2      Pz                   0.179
  -------------------------------------------
                           Total:     175.999
  -------------------------------------------
 
     Atomic Populations (Mulliken)
     -----------------------------
Species          Ion     s      p      d      f     Total  Charge (e)
=====================================================================
  O               1     1.90   4.64   0.00   0.00   6.54    -0.54
  O               2     1.90   4.64   0.00   0.00   6.54    -0.54
  O               3     1.90   4.64   0.00   0.00   6.54    -0.54
  O               4     1.90   4.64   0.00   0.00   6.54    -0.54
  O               5     1.90   4.64   0.00   0.00   6.54    -0.54
  O               6     1.90   4.64   0.00   0.00   6.54    -0.54
  O               7     1.90   4.64   0.00   0.00   6.54    -0.54
  O               8     1.90   4.64   0.00   0.00   6.54    -0.54
  O               9     1.90   4.64   0.00   0.00   6.54    -0.54
  O              10     1.90   4.64   0.00   0.00   6.54    -0.54
  O              11     1.90   4.64   0.00   0.00   6.54    -0.54
  O              12     1.90   4.64   0.00   0.00   6.54    -0.54
  O              13     1.90   4.64   0.00   0.00   6.54    -0.54
  O              14     1.90   4.64   0.00   0.00   6.54    -0.54
  O              15     1.90   4.64   0.00   0.00   6.54    -0.54
  O              16     1.90   4.64   0.00   0.00   6.54    -0.54
  Cs              1     2.13   6.20   0.00   0.00   8.33     0.67
  Cs              2     2.05   5.98   0.00   0.00   8.02     0.98
  Cs              3     2.05   5.98   0.00   0.00   8.02     0.98
  Cs              4     2.13   6.20   0.00   0.00   8.33     0.67
  Cs              5     2.05   5.98   0.00   0.00   8.02     0.98
  Cs              6     2.05   5.98   0.00   0.00   8.02     0.98
  Ta              1     2.28   6.40   2.62   0.00  11.30     1.70
  Ta              2     2.28   6.40   2.62   0.00  11.30     1.70
=====================================================================
 
                 Bond                   Population      Length (A)
======================================================================
              O 10 -- O 12                   0.18        1.49237
              O 9  -- O 11                   0.18        1.49237
              O 14 -- O 16                   0.18        1.49237
              O 13 -- O 15                   0.18        1.49237
              O 2  -- O 4                    0.18        1.49237
              O 1  -- O 3                    0.18        1.49237
              O 6  -- O 8                    0.18        1.49237
              O 5  -- O 7                    0.18        1.49237
              O 4  -- Ta 1                   0.29        1.98850
              O 12 -- Ta 2                   0.29        1.98850
              O 11 -- Ta 2                   0.29        1.98850
              O 6  -- Ta 2                   0.29        1.98850
              O 5  -- Ta 2                   0.29        1.98850
              O 3  -- Ta 1                   0.29        1.98850
              O 14 -- Ta 1                   0.29        1.98850
              O 13 -- Ta 1                   0.29        1.98850
              O 2  -- Ta 1                   0.23        2.03527
              O 16 -- Ta 1                   0.23        2.03527
              O 15 -- Ta 1                   0.23        2.03527
              O 10 -- Ta 2                   0.23        2.03527
              O 8  -- Ta 2                   0.23        2.03527
              O 7  -- Ta 2                   0.23        2.03527
              O 9  -- Ta 2                   0.23        2.03527
              O 1  -- Ta 1                   0.23        2.03527
              O 13 -- O 14                  -0.02        2.69865
              O 3  -- O 4                   -0.02        2.69865
              O 11 -- O 12                  -0.02        2.69866
              O 5  -- O 6                   -0.02        2.69866
              O 2  -- O 16                  -0.02        2.88445
              O 2  -- O 15                  -0.02        2.88445
              O 1  -- O 16                  -0.02        2.88445
              O 1  -- O 15                  -0.02        2.88445
              O 8  -- O 10                  -0.02        2.88445
              O 8  -- O 9                   -0.02        2.88445
              O 7  -- O 10                  -0.02        2.88445
              O 7  -- O 9                   -0.02        2.88445
              O 2  -- O 14                  -0.01        2.91291
              O 2  -- O 13                  -0.01        2.91291
              O 1  -- O 14                  -0.01        2.91291
              O 1  -- O 13                  -0.01        2.91291
              O 4  -- O 16                  -0.01        2.91291
              O 4  -- O 15                  -0.01        2.91291
              O 3  -- O 16                  -0.01        2.91291
              O 3  -- O 15                  -0.01        2.91291
              O 8  -- O 12                  -0.01        2.91291
              O 7  -- O 11                  -0.01        2.91291
              O 8  -- O 11                  -0.01        2.91291
              O 7  -- O 12                  -0.01        2.91291
              O 6  -- O 10                  -0.01        2.91291
              O 6  -- O 9                   -0.01        2.91291
              O 5  -- O 10                  -0.01        2.91291
              O 5  -- O 9                   -0.01        2.91291
              O 12 -- Cs 6                   0.01        2.98807
              O 12 -- Cs 5                   0.01        2.98807
              O 6  -- Cs 2                   0.01        2.98807
              O 5  -- Cs 3                   0.01        2.98807
              O 4  -- Cs 3                   0.01        2.98807
              O 4  -- Cs 2                   0.01        2.98807
              O 14 -- Cs 5                   0.01        2.98807
              O 13 -- Cs 6                   0.01        2.98807
              O 11 -- Cs 6                   0.01        2.98807
              O 11 -- Cs 5                   0.01        2.98807
              O 3  -- Cs 3                   0.01        2.98807
              O 3  -- Cs 2                   0.01        2.98807
              O 6  -- Cs 3                   0.01        2.98807
              O 5  -- Cs 2                   0.01        2.98807
              O 14 -- Cs 6                   0.01        2.98807
              O 13 -- Cs 5                   0.01        2.98807
======================================================================
 
 
     Hirshfeld Analysis
     ------------------
Species   Ion     Hirshfeld Charge (e)
======================================
  O        1                -0.21
  O        2                -0.21
  O        3                -0.22
  O        4                -0.22
  O        5                -0.22
  O        6                -0.22
  O        7                -0.21
  O        8                -0.21
  O        9                -0.21
  O       10                -0.21
  O       11                -0.22
  O       12                -0.22
  O       13                -0.22
  O       14                -0.22
  O       15                -0.21
  O       16                -0.21
  Cs       1                 0.40
  Cs       2                 0.35
  Cs       3                 0.35
  Cs       4                 0.40
  Cs       5                 0.35
  Cs       6                 0.35
  Ta       1                 0.61
  Ta       2                 0.61
======================================
 

Writing analysis data to Cs3TaO8.castep_bin

Writing model to Cs3TaO8.check
 
 A BibTeX formatted list of references used in this run has been written to 
 Cs3TaO8.bib
 
Initialisation time =     19.98 s
Calculation time    =  20614.85 s
Finalisation time   =      2.77 s
Total time          =  20637.60 s
Peak Memory Use     = 4546900 kB
  
Overall parallel efficiency rating: Terrible (29%)                              
  
Data was distributed by:-
G-vector (3-way); efficiency rating: Terrible (31%)                             
k-point (6-way); efficiency rating: Very good (87%)                             
